###############################################################################
# Markgraf, S.A.;Reeder, R.J. (1985)
# American Mineralogist 70, 590-600
# High-temperature structure refinements of calcite and magnesite
# 
# CIF by ICSD-for-WWW,  Copyright 2003 FIZ-Karlsruhe & A.W.Hewat (hewat@ill.fr)
# NOT TO BE PUBLISHED IN ANY FORM. See http://icsd.ill.fr/icsd/conditions.html
###############################################################################

data_40107-ICSD
_database_code_ICSD                40107
_audit_creation_date               1998-06-26
_chemical_name_systematic
'Calcium carbonate'
_chemical_formula_structural       
'Ca (C O3)'
_chemical_formula_sum              
'C1 Ca1 O3'
_publ_section_title                
'C1 Ca1 O3'
loop_
_citation_id
_citation_journal_abbrev
_citation_year
_citation_journal_volume
_citation_page_first
_citation_page_last
_citation_journal_id_ASTM
primary 'American Mineralogist' 1985 70 590 600 AMMIAY
loop_
_publ_author_name
Markgraf, S.A.;Reeder, R.J.
_cell_length_a                     4.988(1)
_cell_length_b                     4.988(1)
_cell_length_c                     17.0610(10)
_cell_angle_alpha                  90.
_cell_angle_beta                   90.
_cell_angle_gamma                  120.
_cell_volume                       367.6107
_cell_formula_units_Z              6.000
_symmetry_space_group_name_H-M     'R -3 c'
_symmetry_Int_Tables_number        167
_refine_ls_R_factor_all            0.0226
loop_
_symmetry_equiv_pos_site_id
_symmetry_equiv_pos_as_xyz
   1   'x-y, -y, -z+1/2'
   2   '-x, -x+y, -z+1/2'
   3   'y, x, -z+1/2'
   4   'x-y, x, -z'
   5   'y, -x+y, -z'
   6   '-x, -y, -z'
   7   '-x+y, y, z+1/2'
   8   'x, x-y, z+1/2'
   9   '-y, -x, z+1/2'
  10   '-x+y, -x, z'
  11   '-y, x-y, z'
  12   'x, y, z'
  13   'x-y+2/3, -y+1/3, -z+5/6'
  14   '-x+2/3, -x+y+1/3, -z+5/6'
  15   'y+2/3, x+1/3, -z+5/6'
  16   'x-y+2/3, x+1/3, -z+1/3'
  17   'y+2/3, -x+y+1/3, -z+1/3'
  18   '-x+2/3, -y+1/3, -z+1/3'
  19   '-x+y+2/3, y+1/3, z+5/6'
  20   'x+2/3, x-y+1/3, z+5/6'
  21   '-y+2/3, -x+1/3, z+5/6'
  22   '-x+y+2/3, -x+1/3, z+1/3'
  23   '-y+2/3, x-y+1/3, z+1/3'
  24   'x+2/3, y+1/3, z+1/3'
  25   'x-y+1/3, -y+2/3, -z+1/6'
  26   '-x+1/3, -x+y+2/3, -z+1/6'
  27   'y+1/3, x+2/3, -z+1/6'
  28   'x-y+1/3, x+2/3, -z+2/3'
  29   'y+1/3, -x+y+2/3, -z+2/3'
  30   '-x+1/3, -y+2/3, -z+2/3'
  31   '-x+y+1/3, y+2/3, z+1/6'
  32   'x+1/3, x-y+2/3, z+1/6'
  33   '-y+1/3, -x+2/3, z+1/6'
  34   '-x+y+1/3, -x+2/3, z+2/3'
  35   '-y+1/3, x-y+2/3, z+2/3'
  36   'x+1/3, y+2/3, z+2/3'
loop_
_atom_type_symbol
_atom_type_oxidation_number
Ca2+     2.
C4+     4.
O2-     -2.
loop_
_atom_site_label
_atom_site_type_symbol
_atom_site_symmetry_multiplicity
_atom_site_Wyckoff_symbol
_atom_site_fract_x
_atom_site_fract_y
_atom_site_fract_z
_atom_site_B_iso_or_equiv
_atom_site_occupancy
Ca1 Ca2+ 6 b 0 0 0 0. 1.
C1 C4+ 6 a 0 0 0.25 0. 1.
O1 O2- 18 e 0.2567(2) 0 0.25 0. 1.
loop_
_atom_site_aniso_label
_atom_site_aniso_type_symbol
_atom_site_aniso_Beta_11
_atom_site_aniso_Beta_22
_atom_site_aniso_Beta_33
_atom_site_aniso_Beta_12
_atom_site_aniso_Beta_13
_atom_site_aniso_Beta_23
Ca1 Ca2+ 0.0122(5) 0.0122(5) 0.00161(1) 0.0061(3) 0 0
C1 C4+ 0.012(1) 0.012(1) 0.0008(1) 0.0060(5) 0 0
O1 O2- 0.0142(7) 0.0256(8) 0.00159(5) 0.0128(4) -.0011(1) -.0022(1)
#End of data_40107-ICSD

